 Entering Gaussian System, Link 0=g03
 Input=Co.gjf
 Output=E:\gausswfn\Co.out
 Initial command:
 l1.exe .\gxx.inp E:\gausswfn\Co.out /scrdir=.\
 Entering Link 1 = l1.exe PID=      7444.
  
 Copyright (c) 1988,1990,1992,1993,1995,1998,2003, Gaussian, Inc.
                  All Rights Reserved.
  
 This is the Gaussian(R) 03 program.  It is based on the
 the Gaussian(R) 98 system (copyright 1998, Gaussian, Inc.),
 the Gaussian(R) 94 system (copyright 1995, Gaussian, Inc.),
 the Gaussian 92(TM) system (copyright 1992, Gaussian, Inc.),
 the Gaussian 90(TM) system (copyright 1990, Gaussian, Inc.),
 the Gaussian 88(TM) system (copyright 1988, Gaussian, Inc.),
 the Gaussian 86(TM) system (copyright 1986, Carnegie Mellon
 University), and the Gaussian 82(TM) system (copyright 1983,
 Carnegie Mellon University). Gaussian is a federally registered
 trademark of Gaussian, Inc.
  
 This software contains proprietary and confidential information,
 including trade secrets, belonging to Gaussian, Inc.
  
 This software is provided under written license and may be
 used, copied, transmitted, or stored only in accord with that
 written license.
  
 The following legend is applicable only to US Government
 contracts under DFARS:
  
                    RESTRICTED RIGHTS LEGEND
  
 Use, duplication or disclosure by the US Government is subject
 to restrictions as set forth in subparagraph (c)(1)(ii) of the
 Rights in Technical Data and Computer Software clause at DFARS
 252.227-7013.
  
 Gaussian, Inc.
 Carnegie Office Park, Building 6, Pittsburgh, PA 15106 USA
  
 The following legend is applicable only to US Government
 contracts under FAR:
  
                    RESTRICTED RIGHTS LEGEND
  
 Use, reproduction and disclosure by the US Government is subject
 to restrictions as set forth in subparagraph (c) of the
 Commercial Computer Software - Restricted Rights clause at FAR
 52.227-19.
  
 Gaussian, Inc.
 Carnegie Office Park, Building 6, Pittsburgh, PA 15106 USA
  
  
 ---------------------------------------------------------------
 Warning -- This program may not be used in any manner that
 competes with the business of Gaussian, Inc. or will provide
 assistance to any competitor of Gaussian, Inc.  The licensee
 of this program is prohibited from giving any competitor of
 Gaussian, Inc. access to this program.  By using this program,
 the user acknowledges that Gaussian, Inc. is engaged in the
 business of creating and licensing software in the field of
 computational chemistry and represents and warrants to the
 licensee that it is not a competitor of Gaussian, Inc. and that
 it will not use this program in any manner prohibited above.
 ---------------------------------------------------------------
  

 Cite this work as:
 Gaussian 03, Revision B.01,
 M. J. Frisch, G. W. Trucks, H. B. Schlegel, G. E. Scuseria, 
 M. A. Robb, J. R. Cheeseman, J. A. Montgomery, Jr., T. Vreven, 
 K. N. Kudin, J. C. Burant, J. M. Millam, S. S. Iyengar, J. Tomasi, 
 V. Barone, B. Mennucci, M. Cossi, G. Scalmani, N. Rega, 
 G. A. Petersson, H. Nakatsuji, M. Hada, M. Ehara, K. Toyota, 
 R. Fukuda, J. Hasegawa, M. Ishida, T. Nakajima, Y. Honda, O. Kitao, 
 H. Nakai, M. Klene, X. Li, J. E. Knox, H. P. Hratchian, J. B. Cross, 
 C. Adamo, J. Jaramillo, R. Gomperts, R. E. Stratmann, O. Yazyev, 
 A. J. Austin, R. Cammi, C. Pomelli, J. W. Ochterski, P. Y. Ayala, 
 K. Morokuma, G. A. Voth, P. Salvador, J. J. Dannenberg, 
 V. G. Zakrzewski, S. Dapprich, A. D. Daniels, M. C. Strain, 
 O. Farkas, D. K. Malick, A. D. Rabuck, K. Raghavachari, 
 J. B. Foresman, J. V. Ortiz, Q. Cui, A. G. Baboul, S. Clifford, 
 J. Cioslowski, B. B. Stefanov, G. Liu, A. Liashenko, P. Piskorz, 
 I. Komaromi, R. L. Martin, D. J. Fox, T. Keith, M. A. Al-Laham, 
 C. Y. Peng, A. Nanayakkara, M. Challacombe, P. M. W. Gill, 
 B. Johnson, W. Chen, M. W. Wong, C. Gonzalez, and J. A. Pople, 
 Gaussian, Inc., Pittsburgh PA, 2003.
 
 *********************************************
 Gaussian 03:  x86-Win32-G03RevB.01 3-Mar-2003
                  11-Nov-2014 
 *********************************************
 ------------------------------------
 # RHF/STO-2G iop(3/33=4) output(wfn)
 ------------------------------------
 1/38=1/1;
 2/17=6,18=5,40=1/2;
 3/6=2,11=1,16=1,25=1,30=1,33=4/1,2,3;
 4/7=1/1;
 5/5=2,32=1,38=5/2;
 6/7=2,8=2,9=2,10=2,28=1/1;
 99/5=1,6=100,9=1/99;
 -------------------------
 Formaldehyde Single Point
 -------------------------
 Symbolic Z-matrix:
 Charge =  0 Multiplicity = 1
 C
 O                    1     0.52918 
 
                          Input orientation:                          
 ---------------------------------------------------------------------
 Center     Atomic     Atomic              Coordinates (Angstroms)
 Number     Number      Type              X           Y           Z
 ---------------------------------------------------------------------
    1          6             0        0.000000    0.000000    0.000000
    2          8             0        0.000000    0.000000    0.529177
 ---------------------------------------------------------------------
 Stoichiometry    CO
 Framework group  C*V[C*(CO)]
 Deg. of freedom     1
 Full point group                 C*V     NOp   4
 Largest Abelian subgroup         C2V     NOp   4
 Largest concise Abelian subgroup C1      NOp   1
                         Standard orientation:                         
 ---------------------------------------------------------------------
 Center     Atomic     Atomic              Coordinates (Angstroms)
 Number     Number      Type              X           Y           Z
 ---------------------------------------------------------------------
    1          6             0        0.000000    0.000000   -0.302387
    2          8             0        0.000000    0.000000    0.226790
 ---------------------------------------------------------------------
 Rotational constants (GHZ):      0.0000000    263.2272478    263.2272478
 Standard basis: STO-2G (5D, 7F)
                         Coordinates in L301:                         
 ---------------------------------------------------------------------
 Center     Atomic     Atomic              Coordinates (Angstroms)
 Number     Number      Type              X           Y           Z
 ---------------------------------------------------------------------
    1          6             0        0.000000    0.000000   -0.302387
    2          8             0        0.000000    0.000000    0.226790
 ---------------------------------------------------------------------
 Electric field displacement of shell     1 is  0.00D+00
 Electric field displacement of shell     2 is  0.00D+00
 Electric field displacement of shell     3 is  0.00D+00
 Electric field displacement of shell     4 is  0.00D+00
 LdAtmC:  AtmChg=     6.000000     8.000000
 AtZEff=  -3.6000000  -5.6000000
 NEqShl: 
              1            2            3            4
     1            1            1            1            1
     2            2            2            2            2
     3            3            3            3            3
     4            4            4            4            4
 NEqBas: 
              1            2            3            4
     1            1            1            1            1
     2            2            2            2            2
     3            3           -3           -3            3
     4            4           -4            4           -4
     5            5            5            5            5
     6            6            6            6            6
     7            7            7            7            7
     8            8           -8           -8            8
     9            9           -9            9           -9
    10           10           10           10           10
 NEqShl: 
              1            2            3            4
     1            1            1            1            1
     2            2            2            2            2
     3            3            3            3            3
     4            4            4            4            4
 NEqBas: 
              1            2            3            4
     1            1            1            1            1
     2            2            2            2            2
     3            3           -3           -3            3
     4            4           -4            4           -4
     5            5            5            5            5
     6            6            6            6            6
     7            7            7            7            7
     8            8           -8           -8            8
     9            9           -9            9           -9
    10           10           10           10           10
 There are     6 symmetry adapted basis functions of A1  symmetry.
   1         1   1   1   1
   2         2   2   2   2
   3         5   5   5   5
   4         6   6   6   6
   5         7   7   7   7
   6        10  10  10  10
 There are     0 symmetry adapted basis functions of A2  symmetry.
 There are     2 symmetry adapted basis functions of B1  symmetry.
   7         3   3   3   3
   8         8   8   8   8
 There are     2 symmetry adapted basis functions of B2  symmetry.
   9         4   4   4   4
  10         9   9   9   9
 Order= 1 2 4 3
 Reordered character table:
              1            2            3            4
     1            1            1            1            1
     2            1            1           -1           -1
     3            1           -1           -1            1
     4            1           -1            1           -1
 Integral buffers will be    262144 words long.
 Raffenetti 1 integral format.
 Two-electron integral symmetry is turned on.
    10 basis functions,    20 primitive gaussians,    10 cartesian basis functions
     7 alpha electrons        7 beta electrons
       nuclear repulsion energy        47.9999963082 Hartrees.
 NAtoms=    2 NActive=    2 NUniq=    2 SFac= 1.00D+00 NAtFMM=   60 Big=F
 Leave Link  301 at Tue Nov 11 23:17:57 2014, MaxMem=    6291456 cpu:       0.0
 NPDir=0 NMtPBC=     1 NCelOv=     1 NCel=       1 NClECP=     1 NCelD=      1
         NCelK=      1 NCelE2=     1 NClLst=     1 CellRange=     0.0.
 One-electron integrals computed using PRISM.
 Entering OneElI...
 OneElI was handed  6281310 working-precision words.
 Calculate overlap and kinetic energy integrals
    NBasis =  10  MinDer = 0  MaxDer = 0
 Requested accuracy = 0.1000D-12
 PRISM was handed     6280171 working-precision words and    10 shell-pairs
 *** Overlap *** 
                1             2             3             4             5
      1  0.100000D+01
      2  0.270057D+00  0.100000D+01
      3  0.000000D+00  0.000000D+00  0.100000D+01
      4  0.000000D+00  0.000000D+00  0.000000D+00  0.100000D+01
      5  0.000000D+00  0.000000D+00  0.000000D+00  0.000000D+00  0.100000D+01
      6  0.202499D-01  0.127495D+00  0.000000D+00  0.000000D+00  0.224944D+00
      7  0.226572D+00  0.785287D+00  0.000000D+00  0.000000D+00  0.542867D+00
      8  0.000000D+00  0.000000D+00  0.672812D+00  0.000000D+00  0.000000D+00
      9  0.000000D+00  0.000000D+00  0.000000D+00  0.672812D+00  0.000000D+00
     10 -0.359937D+00 -0.348250D+00  0.000000D+00  0.000000D+00  0.232143D+00
                6             7             8             9            10
      6  0.100000D+01
      7  0.258787D+00  0.100000D+01
      8  0.000000D+00  0.000000D+00  0.100000D+01
      9  0.000000D+00  0.000000D+00  0.000000D+00  0.100000D+01
     10  0.000000D+00  0.000000D+00  0.000000D+00  0.000000D+00  0.100000D+01
 *** Kinetic Energy *** 
                1             2             3             4             5
      1  0.153653D+02
      2  0.280189D+00  0.453261D+00
      3  0.000000D+00  0.000000D+00  0.143149D+01
      4  0.000000D+00  0.000000D+00  0.000000D+00  0.143149D+01
      5  0.000000D+00  0.000000D+00  0.000000D+00  0.000000D+00  0.143149D+01
      6 -0.250429D+00  0.893020D-01  0.000000D+00  0.000000D+00  0.537788D+00
      7  0.207888D+00  0.389821D+00  0.000000D+00  0.000000D+00  0.615556D+00
      8  0.000000D+00  0.000000D+00  0.908558D+00  0.000000D+00  0.000000D+00
      9  0.000000D+00  0.000000D+00  0.000000D+00  0.908558D+00  0.000000D+00
     10 -0.870870D+00 -0.347972D+00  0.000000D+00  0.000000D+00 -0.228814D+00
                6             7             8             9            10
      6  0.280435D+02
      7  0.462646D+00  0.775634D+00
      8  0.000000D+00  0.000000D+00  0.244960D+01
      9  0.000000D+00  0.000000D+00  0.000000D+00  0.244960D+01
     10  0.000000D+00  0.000000D+00  0.000000D+00  0.000000D+00  0.244960D+01
 Entering OneElI...
 OneElI was handed  6281310 working-precision words.
 Calculate potential energy integrals
    NBasis =  10  MinDer = 0  MaxDer = 0
 Requested accuracy = 0.1000D-12
 PRISM was handed     6280135 working-precision words and    10 shell-pairs
 ***** Potential Energy ***** 
                1             2             3             4             5
      1  0.406284D+02
      2  0.721661D+01  0.112025D+02
      3  0.000000D+00  0.000000D+00  0.102644D+02
      4  0.000000D+00  0.000000D+00  0.000000D+00  0.102644D+02
      5  0.464899D+00  0.239352D+01  0.000000D+00  0.000000D+00  0.122338D+02
      6  0.668632D+00  0.498008D+01  0.000000D+00  0.000000D+00  0.904523D+01
      7  0.620340D+01  0.105775D+02  0.000000D+00  0.000000D+00  0.871058D+01
      8  0.000000D+00  0.000000D+00  0.791384D+01  0.000000D+00  0.000000D+00
      9  0.000000D+00  0.000000D+00  0.000000D+00  0.791384D+01  0.000000D+00
     10 -0.102011D+02 -0.567081D+01  0.000000D+00  0.000000D+00  0.885001D+00
                6             7             8             9            10
      6  0.647735D+02
      7  0.102635D+02  0.144374D+02
      8  0.000000D+00  0.000000D+00  0.132932D+02
      9  0.000000D+00  0.000000D+00  0.000000D+00  0.132932D+02
     10 -0.246057D+00 -0.214514D+01  0.000000D+00  0.000000D+00  0.150624D+02
 ****** Core Hamiltonian ****** 
                1             2             3             4             5
      1 -0.252631D+02
      2 -0.693642D+01 -0.107493D+02
      3  0.000000D+00  0.000000D+00 -0.883295D+01
      4  0.000000D+00  0.000000D+00  0.000000D+00 -0.883295D+01
      5 -0.464899D+00 -0.239352D+01  0.000000D+00  0.000000D+00 -0.108023D+02
      6 -0.919061D+00 -0.489077D+01  0.000000D+00  0.000000D+00 -0.850744D+01
      7 -0.599552D+01 -0.101877D+02  0.000000D+00  0.000000D+00 -0.809502D+01
      8  0.000000D+00  0.000000D+00 -0.700528D+01  0.000000D+00  0.000000D+00
      9  0.000000D+00  0.000000D+00  0.000000D+00 -0.700528D+01  0.000000D+00
     10  0.933021D+01  0.532284D+01  0.000000D+00  0.000000D+00 -0.111381D+01
                6             7             8             9            10
      6 -0.367300D+02
      7 -0.980088D+01 -0.136617D+02
      8  0.000000D+00  0.000000D+00 -0.108436D+02
      9  0.000000D+00  0.000000D+00  0.000000D+00 -0.108436D+02
     10  0.246057D+00  0.214514D+01  0.000000D+00  0.000000D+00 -0.126128D+02
 SVDSVc IR=1
 SVDSVc V= 8.77D+00 6.26D+00 3.51D+00 3.18D+00 2.17D+00 1.12D-01
 SVDSVc IR=2
 SVDSVc V=
 SVDSVc IR=3
 SVDSVc V= 6.69D+00 1.31D+00
 SVDSVc IR=4
 SVDSVc V= 6.69D+00 1.31D+00
 TstOVc:  Largest diagonal error= 4.77D-15 IB=1 I=    6.
 TstOVc:  Largest same sym error= 6.80D-16 IB=1 I=    5 J=    4.
 TstOVc:  Largest diff sym error= 0.00D+00 IB=0 JB=0 I=    0 J=    0.
 Orthogonalized basis functions: 
               1            2            3            4            5
      1-0.211256D+00 0.314334D+00-0.871261D-01 0.826254D+00-0.599798D+00
      2-0.383517D+00 0.165711D+00 0.240648D+00-0.504961D+00-0.185239D+00
      3 0.000000D+00 0.000000D+00 0.000000D+00 0.000000D+00 0.000000D+00
      4 0.000000D+00 0.000000D+00 0.000000D+00 0.000000D+00 0.000000D+00
      5-0.197384D+00-0.449350D+00 0.870271D-01 0.519797D+00 0.686230D+00
      6-0.173145D+00-0.209176D+00-0.961885D+00-0.186278D+00-0.215612D+00
      7-0.420361D+00-0.171500D+00 0.265978D+00-0.120482D+00-0.773621D-01
      8 0.000000D+00 0.000000D+00 0.000000D+00 0.000000D+00 0.000000D+00
      9 0.000000D+00 0.000000D+00 0.000000D+00 0.000000D+00 0.000000D+00
     10 0.137417D+00-0.487905D+00 0.264342D+00 0.430172D-02-0.961706D+00
               6            7            8            9           10
      1 0.307737D+00 0.000000D+00 0.000000D+00 0.000000D+00 0.000000D+00
      2 0.360300D+01 0.000000D+00 0.000000D+00 0.000000D+00 0.000000D+00
      3 0.000000D+00-0.546715D+00-0.123619D+01 0.000000D+00 0.000000D+00
      4 0.000000D+00 0.000000D+00 0.000000D+00-0.546715D+00-0.123619D+01
      5 0.208745D+01 0.000000D+00 0.000000D+00 0.000000D+00 0.000000D+00
      6 0.153147D+00 0.000000D+00 0.000000D+00 0.000000D+00 0.000000D+00
      7-0.418888D+01 0.000000D+00 0.000000D+00 0.000000D+00 0.000000D+00
      8 0.000000D+00-0.546715D+00 0.123619D+01 0.000000D+00 0.000000D+00
      9 0.000000D+00 0.000000D+00 0.000000D+00-0.546715D+00 0.123619D+01
     10 0.906219D+00 0.000000D+00 0.000000D+00 0.000000D+00 0.000000D+00
 NBasis=    10 RedAO= T  NBF=     6     0     2     2
 NBsUse=    10 1.00D-06 NBFU=     6     0     2     2
 Leave Link  302 at Tue Nov 11 23:17:57 2014, MaxMem=    6291456 cpu:       0.0
 DipPsm:  J= 1 NJ= 4 MaxL=1 MMat= 4 MaxMat= 4.
 Entering OneElI...
 OneElI was handed  6291235 working-precision words.
 Multipole integrals L=0 to 1 MinM= 0 MaxM= 3.
 Requested accuracy = 0.1000D-12
 PRISM was handed     6290096 working-precision words and    10 shell-pairs
 Multipole matrices IBuc=  518 IX=    1 IJ=           1:
                1             2             3             4             5
      1  0.000000D+00
      2  0.000000D+00  0.000000D+00
      3  0.586397D-01  0.835724D+00  0.000000D+00
      4  0.000000D+00  0.000000D+00  0.000000D+00  0.000000D+00
      5  0.000000D+00  0.000000D+00  0.000000D+00  0.000000D+00  0.000000D+00
      6  0.000000D+00  0.000000D+00  0.109523D-01  0.000000D+00  0.000000D+00
      7  0.000000D+00  0.000000D+00  0.529090D+00  0.000000D+00  0.000000D+00
      8  0.316033D-01  0.564360D+00  0.000000D+00  0.000000D+00  0.387109D+00
      9  0.000000D+00  0.000000D+00  0.000000D+00  0.000000D+00  0.000000D+00
     10  0.000000D+00  0.000000D+00 -0.285703D+00  0.000000D+00  0.000000D+00
                6             7             8             9            10
      6  0.000000D+00
      7  0.000000D+00  0.000000D+00
      8  0.410146D-01  0.638865D+00  0.000000D+00
      9  0.000000D+00  0.000000D+00  0.000000D+00  0.000000D+00
     10  0.000000D+00  0.000000D+00  0.000000D+00  0.000000D+00  0.000000D+00
 Multipole matrices IBuc=  518 IX=    2 IJ=           1:
                1             2             3             4             5
      1  0.000000D+00
      2  0.000000D+00  0.000000D+00
      3  0.000000D+00  0.000000D+00  0.000000D+00
      4  0.586397D-01  0.835724D+00  0.000000D+00  0.000000D+00
      5  0.000000D+00  0.000000D+00  0.000000D+00  0.000000D+00  0.000000D+00
      6  0.000000D+00  0.000000D+00  0.000000D+00  0.109523D-01  0.000000D+00
      7  0.000000D+00  0.000000D+00  0.000000D+00  0.529090D+00  0.000000D+00
      8  0.000000D+00  0.000000D+00  0.000000D+00  0.000000D+00  0.000000D+00
      9  0.316033D-01  0.564360D+00  0.000000D+00  0.000000D+00  0.387109D+00
     10  0.000000D+00  0.000000D+00  0.000000D+00 -0.285703D+00  0.000000D+00
                6             7             8             9            10
      6  0.000000D+00
      7  0.000000D+00  0.000000D+00
      8  0.000000D+00  0.000000D+00  0.000000D+00
      9  0.410146D-01  0.638865D+00  0.000000D+00  0.000000D+00
     10  0.000000D+00  0.000000D+00  0.000000D+00  0.000000D+00  0.000000D+00
 Multipole matrices IBuc=  518 IX=    3 IJ=           1:
                1             2             3             4             5
      1 -0.571429D+00
      2 -0.154318D+00 -0.571429D+00
      3  0.000000D+00  0.000000D+00 -0.571429D+00
      4  0.000000D+00  0.000000D+00  0.000000D+00 -0.571429D+00
      5  0.586397D-01  0.835724D+00  0.000000D+00  0.000000D+00 -0.571429D+00
      6  0.178897D-02  0.506109D-01  0.000000D+00  0.000000D+00  0.909284D-01
      7 -0.109855D+00  0.420133D-01  0.000000D+00  0.000000D+00  0.499163D+00
      8  0.000000D+00  0.000000D+00  0.264500D-02  0.000000D+00  0.000000D+00
      9  0.000000D+00  0.000000D+00  0.000000D+00  0.264500D-02  0.000000D+00
     10  0.178686D+00  0.531467D+00  0.000000D+00  0.000000D+00  0.107565D+00
                6             7             8             9            10
      6  0.428571D+00
      7  0.110909D+00  0.428571D+00
      8  0.000000D+00  0.000000D+00  0.428571D+00
      9  0.000000D+00  0.000000D+00  0.000000D+00  0.428571D+00
     10  0.410146D-01  0.638865D+00  0.000000D+00  0.000000D+00  0.428571D+00
 ReDoC1: IPurDI=1 IPurFI=1 IPurDO=0 IPurFO=0.
 MO coefficients before ReDoC1: 
               1            2
      1 0.525716D+01 0.121254D-01
      2 0.309077D+00 0.215023D+00
      3 0.000000D+00 0.000000D+00
      4 0.000000D+00 0.000000D+00
      5 0.000000D+00 0.412931D+00
      6 0.341116D-03 0.825505D+01
      7 0.255190D+00 0.462432D+00
      8 0.000000D+00 0.000000D+00
      9 0.000000D+00 0.000000D+00
     10-0.459988D+00 0.000000D+00
 MO coefficients after ReDoC1: 
               1            2
      1 0.525716D+01 0.121254D-01
      2 0.309077D+00 0.215023D+00
      3 0.000000D+00 0.000000D+00
      4 0.000000D+00 0.000000D+00
      5 0.000000D+00 0.412931D+00
      6 0.341116D-03 0.825505D+01
      7 0.255190D+00 0.462432D+00
      8 0.000000D+00 0.000000D+00
      9 0.000000D+00 0.000000D+00
     10-0.459988D+00 0.000000D+00
 Fermi contact integrals: 
               1            2
      1 0.525716D+01 0.121254D-01
      2 0.309077D+00 0.215023D+00
      3 0.000000D+00 0.000000D+00
      4 0.000000D+00 0.000000D+00
      5 0.000000D+00 0.412931D+00
      6 0.341116D-03 0.825505D+01
      7 0.255190D+00 0.462432D+00
      8 0.000000D+00 0.000000D+00
      9 0.000000D+00 0.000000D+00
     10-0.459988D+00 0.000000D+00
 Leave Link  303 at Tue Nov 11 23:17:57 2014, MaxMem=    6291456 cpu:       0.0
 Harris functional with IExCor=  205 diagonalized for initial guess.
 ExpMin= 2.88D-01 ExpMax= 5.00D+01 ExpMxC= 5.00D+01 IAcc=1 IRadAn=         1 AccDes= 1.00D-06
 HarFok:  IExCor= 205 AccDes= 1.00D-06 IRadAn=         1 IDoV=1
 ScaDFX=  1.000000  1.000000  1.000000  1.000000
 Initial guess orbital symmetries:
       Occupied  (SG) (SG) (SG) (PI) (PI) (SG) (SG)
       Virtual   (PI) (PI) (SG)
 The electronic state of the initial guess is 1-SG.
 Warning!  Cutoffs for single-point calculations used.
 Requested convergence on RMS density matrix=1.00D-04 within 128 cycles.
 Requested convergence on MAX density matrix=1.00D-02.
 Requested convergence on             energy=5.00D-05.
 No special actions if energy rises.
 Keep R1 integrals in memory in canonical form, NReq=      420920.
 SCF Done:  E(RHF) =  -102.038458008     A.U. after    4 cycles
             Convg  =    0.2241D-04             -V/T =  1.9010
             S**2   =   0.0000

 **********************************************************************

            Population analysis using the SCF density.

 **********************************************************************

 Orbital symmetries:
       Occupied  (SG) (SG) (SG) (PI) (PI) (SG) (SG)
       Virtual   (PI) (PI) (SG)
 The electronic state is 1-SG.
 Alpha  occ. eigenvalues --  -20.76674 -11.73526  -1.61925  -1.16926  -1.16926
 Alpha  occ. eigenvalues --   -0.59555  -0.46725
 Alpha virt. eigenvalues --    0.79287   0.79287   1.31221
          Condensed to atoms (all electrons):
              1          2
     1  C    5.805451  -0.043868
     2  O   -0.043868   8.282285
 Mulliken atomic charges:
              1
     1  C    0.238417
     2  O   -0.238417
 Sum of Mulliken charges=   0.00000
 Atomic charges with hydrogens summed into heavy atoms:
              1
     1  C    0.238417
     2  O   -0.238417
 Sum of Mulliken charges=   0.00000
 Electronic spatial extent (au):  <R**2>=    24.3389
 Charge=     0.0000 electrons
 Dipole moment (field-independent basis, Debye):
    X=     0.0000    Y=     0.0000    Z=     1.1752  Tot=     1.1752
 Quadrupole moment (field-independent basis, Debye-Ang):
   XX=    -8.4044   YY=    -8.4044   ZZ=   -11.3163
   XY=     0.0000   XZ=     0.0000   YZ=     0.0000
 Traceless Quadrupole moment (field-independent basis, Debye-Ang):
   XX=     0.9706   YY=     0.9706   ZZ=    -1.9412
   XY=     0.0000   XZ=     0.0000   YZ=     0.0000
 Octapole moment (field-independent basis, Debye-Ang**2):
  XXX=     0.0000  YYY=     0.0000  ZZZ=     3.9629  XYY=     0.0000
  XXY=     0.0000  XXZ=     0.8217  XZZ=     0.0000  YZZ=     0.0000
  YYZ=     0.8217  XYZ=     0.0000
 Hexadecapole moment (field-independent basis, Debye-Ang**3):
 XXXX=    -4.8453 YYYY=    -4.8453 ZZZZ=   -13.2762 XXXY=     0.0000
 XXXZ=     0.0000 YYYX=     0.0000 YYYZ=     0.0000 ZZZX=     0.0000
 ZZZY=     0.0000 XXYY=    -1.6151 XXZZ=    -2.7637 YYZZ=    -2.7637
 XXYZ=     0.0000 YYXZ=     0.0000 ZZXY=     0.0000
 N-N= 4.799999630823D+01 E-N=-3.382853041569D+02  KE= 1.132534954780D+02
 Symmetry A1   KE= 1.054843783072D+02
 Symmetry A2   KE= 0.000000000000D+00
 Symmetry B1   KE= 3.884558585382D+00
 Symmetry B2   KE= 3.884558585382D+00

 Test job not archived.
 1|1|UNPC-UNK|SP|RHF|STO-2G|C1O1|PCUSER|11-Nov-2014|0||# RHF/STO-2G IOP
 (3/33=4) OUTPUT(WFN)||Formaldehyde Single Point||0,1|C|O,1,0.529177249
 ||Version=x86-Win32-G03RevB.01|State=1-SG|HF=-102.038458|RMSD=2.241e-0
 05|Dipole=0.,0.,0.4623519|PG=C*V [C*(C1O1)]||@

 Writing a WFN file to E:\gausswfn\aa.wfn.


 WE ARE REACHING THE STAGE WHERE THE PROBLEMS WE MUST SOLVE ARE 
 GOING TO BECOME INSOLUBLE WITHOUT COMPUTERS.
 I DO NOT FEAR COMPUTERS.  I FEAR THE LACK OF THEM.

                                   -- ISSAC ASIMOV
 Job cpu time:  0 days  0 hours  0 minutes  1.0 seconds.
 File lengths (MBytes):  RWF=     11 Int=      0 D2E=      0 Chk=      7 Scr=      1
 Normal termination of Gaussian 03 at Tue Nov 11 23:17:57 2014.
